version 2
run HighTraffic-0-20131126-10:07:31-1143
attr configname HighTraffic
attr datetime 20131126-10:07:31
attr experiment HighTraffic
attr inifile omnetpp.ini
attr iterationvars ""
attr iterationvars2 $repetition=0
attr measurement ""
attr network Mynetwork
attr processid 1143
attr repetition 0
attr replication #0
attr resultdir results
attr runnumber 0
attr seedset 0

vector 0  Mynetwork.node1  NodePower  ETV
vector 1  Mynetwork.node  NodePower  ETV
vector 2  Mynetwork.node2  NodePower  ETV
vector 3  Mynetwork.node3  NodePower  ETV
vector 4  Mynetwork.node4  NodePower  ETV
0	1	0.01	49.2
0	11	0.02	48.4
0	21	0.03	47.6
0	31	0.04	46.8
0	41	0.05	46
0	51	0.06	45.2
0	61	0.07	44.4
0	71	0.08	43.6
0	81	0.09	42.8
0	91	0.1	42
0	101	0.11	41.2
0	111	0.12	40.4
0	121	0.13	39.6
0	131	0.14	38.8
0	141	0.15	38
0	151	0.16	37.2
0	161	0.17	36.4
0	171	0.18	35.6
0	181	0.19	34.8
0	191	0.2	34
0	201	0.21	33.2
0	211	0.22	32.4
0	221	0.23	31.6
0	231	0.24	30.8
0	241	0.25	30
0	251	0.26	29.2
0	261	0.27	28.4
0	271	0.28	27.6
0	281	0.29	26.8
0	291	0.3	26
0	301	0.31	25.2
0	311	0.32	24.4
0	321	0.33	23.6
0	331	0.34	22.8
0	341	0.35	22
0	351	0.36	21.2
0	361	0.37	20.4
0	371	0.38	19.6
0	381	0.39	18.8
0	391	0.4	18
0	401	0.41	17.2
0	411	0.42	16.4
0	421	0.43	15.6
0	431	0.44	14.8
0	441	0.45	14
0	451	0.46	13.2
0	461	0.47	12.4
0	471	0.48	11.6
0	481	0.49	10.8
0	491	0.5	10
0	501	0.51	9.2
0	511	0.52	8.4
0	521	0.53	7.6
0	531	0.54	6.8
0	541	0.55	6
0	551	0.56	5.2
0	561	0.57	4.4
0	571	0.58	3.6
0	581	0.59	2.8
0	591	0.6	2
0	601	0.61	1.2
0	611	0.62	0.40000000000004
1	2	0.01	49.2
1	12	0.02	48.4
1	22	0.03	47.6
1	32	0.04	46.8
1	42	0.05	46
1	52	0.06	45.2
1	62	0.07	44.4
1	72	0.08	43.6
1	82	0.09	42.8
1	92	0.1	42
1	102	0.11	41.2
1	112	0.12	40.4
1	122	0.13	39.6
1	132	0.14	38.8
1	142	0.15	38
1	152	0.16	37.2
1	162	0.17	36.4
1	172	0.18	35.6
1	182	0.19	34.8
1	192	0.2	34
1	202	0.21	33.2
1	212	0.22	32.4
1	222	0.23	31.6
1	232	0.24	30.8
1	242	0.25	30
1	252	0.26	29.2
1	262	0.27	28.4
1	272	0.28	27.6
1	282	0.29	26.8
1	292	0.3	26
1	302	0.31	25.2
1	312	0.32	24.4
1	322	0.33	23.6
1	332	0.34	22.8
1	342	0.35	22
1	352	0.36	21.2
1	362	0.37	20.4
1	372	0.38	19.6
1	382	0.39	18.8
1	392	0.4	18
1	402	0.41	17.2
1	412	0.42	16.4
1	422	0.43	15.6
1	432	0.44	14.8
1	442	0.45	14
1	452	0.46	13.2
1	462	0.47	12.4
1	472	0.48	11.6
1	482	0.49	10.8
1	492	0.5	10
1	502	0.51	9.2
1	512	0.52	8.4
1	522	0.53	7.6
1	532	0.54	6.8
1	542	0.55	6
1	552	0.56	5.2
1	562	0.57	4.4
1	572	0.58	3.6
1	582	0.59	2.8
1	592	0.6	2
1	602	0.61	1.2
1	612	0.62	0.40000000000004
2	3	0.01	49.2
2	13	0.02	48.4
2	23	0.03	47.6
2	33	0.04	46.8
2	43	0.05	46
2	53	0.06	45.2
2	63	0.07	44.4
2	73	0.08	43.6
2	83	0.09	42.8
2	93	0.1	42
2	103	0.11	41.2
2	113	0.12	40.4
2	123	0.13	39.6
2	133	0.14	38.8
2	143	0.15	38
2	153	0.16	37.2
2	163	0.17	36.4
2	173	0.18	35.6
2	183	0.19	34.8
2	193	0.2	34
2	203	0.21	33.2
2	213	0.22	32.4
2	223	0.23	31.6
2	233	0.24	30.8
2	243	0.25	30
2	253	0.26	29.2
2	263	0.27	28.4
2	273	0.28	27.6
2	283	0.29	26.8
2	293	0.3	26
2	303	0.31	25.2
2	313	0.32	24.4
2	323	0.33	23.6
2	333	0.34	22.8
2	343	0.35	22
2	353	0.36	21.2
2	363	0.37	20.4
2	373	0.38	19.6
2	383	0.39	18.8
2	393	0.4	18
2	403	0.41	17.2
2	413	0.42	16.4
2	423	0.43	15.6
2	433	0.44	14.8
2	443	0.45	14
2	453	0.46	13.2
2	463	0.47	12.4
2	473	0.48	11.6
2	483	0.49	10.8
2	493	0.5	10
2	503	0.51	9.2
2	513	0.52	8.4
2	523	0.53	7.6
2	533	0.54	6.8
2	543	0.55	6
2	553	0.56	5.2
2	563	0.57	4.4
2	573	0.58	3.6
2	583	0.59	2.8
2	593	0.6	2
2	603	0.61	1.2
2	613	0.62	0.40000000000004
3	4	0.01	49.2
3	14	0.02	48.4
3	24	0.03	47.6
3	34	0.04	46.8
3	44	0.05	46
3	54	0.06	45.2
3	64	0.07	44.4
3	74	0.08	43.6
3	84	0.09	42.8
3	94	0.1	42
3	104	0.11	41.2
3	114	0.12	40.4
3	124	0.13	39.6
3	134	0.14	38.8
3	144	0.15	38
3	154	0.16	37.2
3	164	0.17	36.4
3	174	0.18	35.6
3	184	0.19	34.8
3	194	0.2	34
3	204	0.21	33.2
3	214	0.22	32.4
3	224	0.23	31.6
3	234	0.24	30.8
3	244	0.25	30
3	254	0.26	29.2
3	264	0.27	28.4
3	274	0.28	27.6
3	284	0.29	26.8
3	294	0.3	26
3	304	0.31	25.2
3	314	0.32	24.4
3	324	0.33	23.6
3	334	0.34	22.8
3	344	0.35	22
3	354	0.36	21.2
3	364	0.37	20.4
3	374	0.38	19.6
3	384	0.39	18.8
3	394	0.4	18
3	404	0.41	17.2
3	414	0.42	16.4
3	424	0.43	15.6
3	434	0.44	14.8
3	444	0.45	14
3	454	0.46	13.2
3	464	0.47	12.4
3	474	0.48	11.6
3	484	0.49	10.8
3	494	0.5	10
3	504	0.51	9.2
3	514	0.52	8.4
3	524	0.53	7.6
3	534	0.54	6.8
3	544	0.55	6
3	554	0.56	5.2
3	564	0.57	4.4
3	574	0.58	3.6
3	584	0.59	2.8
3	594	0.6	2
3	604	0.61	1.2
3	614	0.62	0.40000000000004
4	5	0.01	49.2
4	15	0.02	48.4
4	25	0.03	47.6
4	35	0.04	46.8
4	45	0.05	46
4	55	0.06	45.2
4	65	0.07	44.4
4	75	0.08	43.6
4	85	0.09	42.8
4	95	0.1	42
4	105	0.11	41.2
4	115	0.12	40.4
4	125	0.13	39.6
4	135	0.14	38.8
4	145	0.15	38
4	155	0.16	37.2
4	165	0.17	36.4
4	175	0.18	35.6
4	185	0.19	34.8
4	195	0.2	34
4	205	0.21	33.2
4	215	0.22	32.4
4	225	0.23	31.6
4	235	0.24	30.8
4	245	0.25	30
4	255	0.26	29.2
4	265	0.27	28.4
4	275	0.28	27.6
4	285	0.29	26.8
4	295	0.3	26
4	305	0.31	25.2
4	315	0.32	24.4
4	325	0.33	23.6
4	335	0.34	22.8
4	345	0.35	22
4	355	0.36	21.2
4	365	0.37	20.4
4	375	0.38	19.6
4	385	0.39	18.8
4	395	0.4	18
4	405	0.41	17.2
4	415	0.42	16.4
4	425	0.43	15.6
4	435	0.44	14.8
4	445	0.45	14
4	455	0.46	13.2
4	465	0.47	12.4
4	475	0.48	11.6
4	485	0.49	10.8
4	495	0.5	10
4	505	0.51	9.2
4	515	0.52	8.4
4	525	0.53	7.6
4	535	0.54	6.8
4	545	0.55	6
4	555	0.56	5.2
4	565	0.57	4.4
4	575	0.58	3.6
4	585	0.59	2.8
4	595	0.6	2
4	605	0.61	1.2
4	615	0.62	0.40000000000004
