version 2
run LowTraffic-0-20131126-10:09:14-1160
attr configname LowTraffic
attr datetime 20131126-10:09:14
attr experiment LowTraffic
attr inifile omnetpp.ini
attr iterationvars ""
attr iterationvars2 $repetition=0
attr measurement ""
attr network Mynetwork
attr processid 1160
attr repetition 0
attr replication #0
attr resultdir results
attr runnumber 0
attr seedset 0

vector 0  Mynetwork.node1  NodePower  ETV
vector 1  Mynetwork.node  NodePower  ETV
vector 2  Mynetwork.node2  NodePower  ETV
vector 3  Mynetwork.node3  NodePower  ETV
vector 4  Mynetwork.node4  NodePower  ETV
0	1	0.3	49.2
0	11	0.6	48.4
0	21	0.9	47.6
0	31	1.2	46.8
0	41	1.5	46
0	51	1.8	45.2
0	61	2.1	44.4
0	71	2.4	43.6
0	81	2.7	42.8
0	91	3	42
0	101	3.3	41.2
0	111	3.6	40.4
0	121	3.9	39.6
0	131	4.2	38.8
0	141	4.5	38
0	151	4.8	37.2
0	161	5.1	36.4
0	171	5.4	35.6
0	181	5.7	34.8
0	191	6	34
0	201	6.3	33.2
0	211	6.6	32.4
0	221	6.9	31.6
0	231	7.2	30.8
0	241	7.5	30
0	251	7.8	29.2
0	261	8.1	28.4
0	271	8.4	27.6
0	281	8.7	26.8
0	291	9	26
0	301	9.3	25.2
0	311	9.6	24.4
0	321	9.9	23.6
0	331	10.2	22.8
0	341	10.5	22
0	351	10.8	21.2
0	361	11.1	20.4
0	371	11.4	19.6
0	381	11.7	18.8
0	391	12	18
0	401	12.3	17.2
0	411	12.6	16.4
0	421	12.9	15.6
0	431	13.2	14.8
0	441	13.5	14
0	451	13.8	13.2
0	461	14.1	12.4
0	471	14.4	11.6
0	481	14.7	10.8
0	491	15	10
0	501	15.3	9.2
0	511	15.6	8.4
0	521	15.9	7.6
0	531	16.2	6.8
0	541	16.5	6
0	551	16.8	5.2
0	561	17.1	4.4
0	571	17.4	3.6
0	581	17.7	2.8
0	591	18	2
0	601	18.3	1.2
0	611	18.6	0.40000000000004
1	2	0.3	49.2
1	12	0.6	48.4
1	22	0.9	47.6
1	32	1.2	46.8
1	42	1.5	46
1	52	1.8	45.2
1	62	2.1	44.4
1	72	2.4	43.6
1	82	2.7	42.8
1	92	3	42
1	102	3.3	41.2
1	112	3.6	40.4
1	122	3.9	39.6
1	132	4.2	38.8
1	142	4.5	38
1	152	4.8	37.2
1	162	5.1	36.4
1	172	5.4	35.6
1	182	5.7	34.8
1	192	6	34
1	202	6.3	33.2
1	212	6.6	32.4
1	222	6.9	31.6
1	232	7.2	30.8
1	242	7.5	30
1	252	7.8	29.2
1	262	8.1	28.4
1	272	8.4	27.6
1	282	8.7	26.8
1	292	9	26
1	302	9.3	25.2
1	312	9.6	24.4
1	322	9.9	23.6
1	332	10.2	22.8
1	342	10.5	22
1	352	10.8	21.2
1	362	11.1	20.4
1	372	11.4	19.6
1	382	11.7	18.8
1	392	12	18
1	402	12.3	17.2
1	412	12.6	16.4
1	422	12.9	15.6
1	432	13.2	14.8
1	442	13.5	14
1	452	13.8	13.2
1	462	14.1	12.4
1	472	14.4	11.6
1	482	14.7	10.8
1	492	15	10
1	502	15.3	9.2
1	512	15.6	8.4
1	522	15.9	7.6
1	532	16.2	6.8
1	542	16.5	6
1	552	16.8	5.2
1	562	17.1	4.4
1	572	17.4	3.6
1	582	17.7	2.8
1	592	18	2
1	602	18.3	1.2
1	612	18.6	0.40000000000004
2	3	0.3	49.2
2	13	0.6	48.4
2	23	0.9	47.6
2	33	1.2	46.8
2	43	1.5	46
2	53	1.8	45.2
2	63	2.1	44.4
2	73	2.4	43.6
2	83	2.7	42.8
2	93	3	42
2	103	3.3	41.2
2	113	3.6	40.4
2	123	3.9	39.6
2	133	4.2	38.8
2	143	4.5	38
2	153	4.8	37.2
2	163	5.1	36.4
2	173	5.4	35.6
2	183	5.7	34.8
2	193	6	34
2	203	6.3	33.2
2	213	6.6	32.4
2	223	6.9	31.6
2	233	7.2	30.8
2	243	7.5	30
2	253	7.8	29.2
2	263	8.1	28.4
2	273	8.4	27.6
2	283	8.7	26.8
2	293	9	26
2	303	9.3	25.2
2	313	9.6	24.4
2	323	9.9	23.6
2	333	10.2	22.8
2	343	10.5	22
2	353	10.8	21.2
2	363	11.1	20.4
2	373	11.4	19.6
2	383	11.7	18.8
2	393	12	18
2	403	12.3	17.2
2	413	12.6	16.4
2	423	12.9	15.6
2	433	13.2	14.8
2	443	13.5	14
2	453	13.8	13.2
2	463	14.1	12.4
2	473	14.4	11.6
2	483	14.7	10.8
2	493	15	10
2	503	15.3	9.2
2	513	15.6	8.4
2	523	15.9	7.6
2	533	16.2	6.8
2	543	16.5	6
2	553	16.8	5.2
2	563	17.1	4.4
2	573	17.4	3.6
2	583	17.7	2.8
2	593	18	2
2	603	18.3	1.2
2	613	18.6	0.40000000000004
3	4	0.3	49.2
3	14	0.6	48.4
3	24	0.9	47.6
3	34	1.2	46.8
3	44	1.5	46
3	54	1.8	45.2
3	64	2.1	44.4
3	74	2.4	43.6
3	84	2.7	42.8
3	94	3	42
3	104	3.3	41.2
3	114	3.6	40.4
3	124	3.9	39.6
3	134	4.2	38.8
3	144	4.5	38
3	154	4.8	37.2
3	164	5.1	36.4
3	174	5.4	35.6
3	184	5.7	34.8
3	194	6	34
3	204	6.3	33.2
3	214	6.6	32.4
3	224	6.9	31.6
3	234	7.2	30.8
3	244	7.5	30
3	254	7.8	29.2
3	264	8.1	28.4
3	274	8.4	27.6
3	284	8.7	26.8
3	294	9	26
3	304	9.3	25.2
3	314	9.6	24.4
3	324	9.9	23.6
3	334	10.2	22.8
3	344	10.5	22
3	354	10.8	21.2
3	364	11.1	20.4
3	374	11.4	19.6
3	384	11.7	18.8
3	394	12	18
3	404	12.3	17.2
3	414	12.6	16.4
3	424	12.9	15.6
3	434	13.2	14.8
3	444	13.5	14
3	454	13.8	13.2
3	464	14.1	12.4
3	474	14.4	11.6
3	484	14.7	10.8
3	494	15	10
3	504	15.3	9.2
3	514	15.6	8.4
3	524	15.9	7.6
3	534	16.2	6.8
3	544	16.5	6
3	554	16.8	5.2
3	564	17.1	4.4
3	574	17.4	3.6
3	584	17.7	2.8
3	594	18	2
3	604	18.3	1.2
3	614	18.6	0.40000000000004
4	5	0.3	49.2
4	15	0.6	48.4
4	25	0.9	47.6
4	35	1.2	46.8
4	45	1.5	46
4	55	1.8	45.2
4	65	2.1	44.4
4	75	2.4	43.6
4	85	2.7	42.8
4	95	3	42
4	105	3.3	41.2
4	115	3.6	40.4
4	125	3.9	39.6
4	135	4.2	38.8
4	145	4.5	38
4	155	4.8	37.2
4	165	5.1	36.4
4	175	5.4	35.6
4	185	5.7	34.8
4	195	6	34
4	205	6.3	33.2
4	215	6.6	32.4
4	225	6.9	31.6
4	235	7.2	30.8
4	245	7.5	30
4	255	7.8	29.2
4	265	8.1	28.4
4	275	8.4	27.6
4	285	8.7	26.8
4	295	9	26
4	305	9.3	25.2
4	315	9.6	24.4
4	325	9.9	23.6
4	335	10.2	22.8
4	345	10.5	22
4	355	10.8	21.2
4	365	11.1	20.4
4	375	11.4	19.6
4	385	11.7	18.8
4	395	12	18
4	405	12.3	17.2
4	415	12.6	16.4
4	425	12.9	15.6
4	435	13.2	14.8
4	445	13.5	14
4	455	13.8	13.2
4	465	14.1	12.4
4	475	14.4	11.6
4	485	14.7	10.8
4	495	15	10
4	505	15.3	9.2
4	515	15.6	8.4
4	525	15.9	7.6
4	535	16.2	6.8
4	545	16.5	6
4	555	16.8	5.2
4	565	17.1	4.4
4	575	17.4	3.6
4	585	17.7	2.8
4	595	18	2
4	605	18.3	1.2
4	615	18.6	0.40000000000004
